TITLE = "Visualization of the volumetric solution"
VARIABLES = "x","y","Conservative_1","Conservative_2","Conservative_3","Conservative_4", "Surface_Sensitivity", "Solution_Sensor"
ZONE NODES= 7004, ELEMENTS= 6901, DATAPACKING=POINT, ZONETYPE=FEQUADRILATERAL
0.000000e+00	0.000000e+00	-7.977929e+01	6.568302e-01	1.146501e-02	-5.771298e-05	-2.058253e-04	0.000000e+00	
1.000000e+00	1.260000e-03	-4.655308e+01	6.568302e-01	1.146501e-02	-2.915248e-05	5.364710e-04	0.000000e+00	
1.000000e+00	-1.260000e-03	-3.839120e+01	6.568302e-01	1.146501e-02	-2.653451e-05	1.481519e-03	0.000000e+00	
1.062795e+02	9.693281e+00	-1.882869e-02	1.204692e-04	9.477906e-06	-1.185684e-07	0.000000e+00	0.000000e+00	
1.770939e-04	9.841940e-04	-7.970157e+01	6.568302e-01	1.146501e-02	-5.715719e-05	-3.949837e-04	0.000000e+00	
3.985107e-04	2.214712e-03	-7.975316e+01	6.568302e-01	1.146501e-02	-5.651353e-05	-6.609760e-04	0.000000e+00	
6.751904e-04	3.752351e-03	-7.981199e+01	6.568302e-01	1.146501e-02	-5.566936e-05	-1.308796e-03	0.000000e+00	
1.047316e-03	5.664270e-03	-7.968561e+01	6.568302e-01	1.146501e-02	-5.438573e-05	-2.795162e-03	0.000000e+00	
2.041388e-03	7.885552e-03	-7.953598e+01	6.568302e-01	1.146501e-02	-5.244320e-05	-3.176016e-03	0.000000e+00	
3.647693e-03	1.045617e-02	-7.941965e+01	6.568302e-01	1.146501e-02	-4.964269e-05	-2.627970e-03	0.000000e+00	
6.036884e-03	1.337540e-02	-7.929758e+01	6.568302e-01	1.146501e-02	-4.567097e-05	-9.381795e-04	0.000000e+00	
9.456201e-03	1.658322e-02	-7.911455e+01	6.568302e-01	1.146501e-02	-4.044813e-05	1.638008e-03	0.000000e+00	
1.411885e-02	2.005676e-02	-7.874199e+01	6.568302e-01	1.146501e-02	-3.418511e-05	4.512553e-03	0.000000e+00	
2.028844e-02	2.375298e-02	-7.803413e+01	6.568302e-01	1.146501e-02	-2.723684e-05	7.147364e-03	0.000000e+00	
2.825716e-02	2.764329e-02	-7.686829e+01	6.568302e-01	1.146501e-02	-1.992786e-05	9.371794e-03	0.000000e+00	
3.836750e-02	3.169104e-02	-7.517143e+01	6.568302e-01	1.146501e-02	-1.246631e-05	1.121517e-02	0.000000e+00	
5.101105e-02	3.585086e-02	-7.290876e+01	6.568302e-01	1.146501e-02	-4.952218e-06	1.283461e-02	0.000000e+00	
6.662654e-02	4.005717e-02	-7.007513e+01	6.568302e-01	1.146501e-02	2.566129e-06	1.439833e-02	0.000000e+00	
8.568587e-02	4.422247e-02	-6.668609e+01	6.568302e-01	1.146501e-02	1.005252e-05	1.609021e-02	0.000000e+00	
1.086725e-01	4.822800e-02	-6.278104e+01	6.568302e-01	1.146501e-02	1.742947e-05	1.801885e-02	0.000000e+00	
1.360446e-01	5.192474e-02	-5.842414e+01	6.568302e-01	1.146501e-02	2.456226e-05	2.021213e-02	0.000000e+00	
1.681854e-01	5.513656e-02	-5.371303e+01	6.568302e-01	1.146501e-02	3.122775e-05	2.258301e-02	0.000000e+00	
2.053398e-01	5.767297e-02	-4.878043e+01	6.568302e-01	1.146501e-02	3.712732e-05	2.492095e-02	0.000000e+00	
2.475461e-01	5.934870e-02	-4.379406e+01	6.568302e-01	1.146501e-02	4.189449e-05	2.690734e-02	0.000000e+00	
2.945704e-01	6.001092e-02	-3.894434e+01	6.568302e-01	1.146501e-02	4.515804e-05	2.818003e-02	0.000000e+00	
3.458610e-01	5.956772e-02	-3.442455e+01	6.568302e-01	1.146501e-02	4.660341e-05	2.843977e-02	0.000000e+00	
4.005385e-01	5.800997e-02	-3.040275e+01	6.568302e-01	1.146501e-02	4.606505e-05	2.754973e-02	0.000000e+00	
4.574322e-01	5.541934e-02	-2.699579e+01	6.568302e-01	1.146501e-02	4.357094e-05	2.558870e-02	0.000000e+00	
5.151676e-01	5.195820e-02	-2.425214e+01	6.568302e-01	1.146501e-02	3.935726e-05	2.281763e-02	0.000000e+00	
5.722912e-01	4.784463e-02	-2.215272e+01	6.568302e-01	1.146501e-02	3.381458e-05	1.958867e-02	0.000000e+00	
6.274119e-01	4.332028e-02	-2.062489e+01	6.568302e-01	1.146501e-02	2.741960e-05	1.624412e-02	0.000000e+00	
6.793304e-01	3.861986e-02	-1.956621e+01	6.568302e-01	1.146501e-02	2.063947e-05	1.305204e-02	0.000000e+00	
7.271310e-01	3.394867e-02	-1.886582e+01	6.568302e-01	1.146501e-02	1.388526e-05	1.018078e-02	0.000000e+00	
7.702258e-01	2.947010e-02	-1.842573e+01	6.568302e-01	1.146501e-02	7.464793e-06	7.714561e-03	0.000000e+00	
8.083481e-01	2.530187e-02	-1.817166e+01	6.568302e-01	1.146501e-02	1.579818e-06	5.697721e-03	0.000000e+00	
8.415097e-01	2.151823e-02	-1.805473e+01	6.568302e-01	1.146501e-02	-3.679929e-06	4.137452e-03	0.000000e+00	
8.699370e-01	1.815586e-02	-1.804100e+01	6.568302e-01	1.146501e-02	-8.284728e-06	2.993803e-03	0.000000e+00	
8.940019e-01	1.522143e-02	-1.810676e+01	6.568302e-01	1.146501e-02	-1.226265e-05	2.191026e-03	0.000000e+00	
9.141583e-01	1.269962e-02	-1.822918e+01	6.568302e-01	1.146501e-02	-1.564593e-05	1.641798e-03	0.000000e+00	
9.308911e-01	1.056055e-02	-1.839180e+01	6.568302e-01	1.146501e-02	-1.849430e-05	1.266946e-03	0.000000e+00	
9.446795e-01	8.765932e-03	-1.857811e+01	6.568302e-01	1.146501e-02	-2.085141e-05	1.006564e-03	0.000000e+00	
9.559725e-01	7.274099e-03	-1.878435e+01	6.568302e-01	1.146501e-02	-2.278550e-05	8.205291e-04	0.000000e+00	
9.651756e-01	6.043345e-03	-1.900321e+01	6.568302e-01	1.146501e-02	-2.433829e-05	6.850667e-04	0.000000e+00	
9.726451e-01	5.034364e-03	-1.924421e+01	6.568302e-01	1.146501e-02	-2.557865e-05	5.860099e-04	0.000000e+00	
9.786875e-01	4.211456e-03	-1.949879e+01	6.568302e-01	1.146501e-02	-2.653543e-05	5.153486e-04	0.000000e+00	
9.835625e-01	3.543115e-03	-1.978980e+01	6.568302e-01	1.146501e-02	-2.727799e-05	4.665108e-04	0.000000e+00	
9.874872e-01	3.002168e-03	-2.008905e+01	6.568302e-01	1.146501e-02	-2.781056e-05	4.363569e-04	0.000000e+00	
9.906413e-01	2.565544e-03	-2.045717e+01	6.568302e-01	1.146501e-02	-2.821572e-05	4.201510e-04	0.000000e+00	
9.931725e-01	2.213917e-03	-2.079126e+01	6.568302e-01	1.146501e-02	-2.844740e-05	4.196787e-04	0.000000e+00	
9.952017e-01	1.931238e-03	-2.129497e+01	6.568302e-01	1.146501e-02	-2.864634e-05	4.273113e-04	0.000000e+00	
9.968269e-01	1.704326e-03	-2.147084e+01	6.568302e-01	1.146501e-02	-2.864016e-05	4.630959e-04	0.000000e+00	
9.981277e-01	1.522390e-03	-2.182385e+01	6.568302e-01	1.146501e-02	-2.886181e-05	5.400675e-04	0.000000e+00	
9.991681e-01	1.376646e-03	-2.010148e+01	6.568302e-01	1.146501e-02	-2.771996e-05	1.053215e-03	0.000000e+00	
1.770939e-04	-9.841940e-04	-7.970477e+01	6.568302e-01	1.146501e-02	-5.820396e-05	-1.922969e-05	0.000000e+00	
3.985107e-04	-2.214712e-03	-7.952504e+01	6.568302e-01	1.146501e-02	-5.868199e-05	1.177091e-05	0.000000e+00	
6.751904e-04	-3.752351e-03	-7.932099e+01	6.568302e-01	1.146501e-02	-5.915985e-05	-9.065359e-05	0.000000e+00	
1.047316e-03	-5.664270e-03	-7.902379e+01	6.568302e-01	1.146501e-02	-5.955458e-05	-6.053291e-04	0.000000e+00	
2.041388e-03	-7.885552e-03	-7.864648e+01	6.568302e-01	1.146501e-02	-5.953954e-05	-1.171793e-03	0.000000e+00	
3.647693e-03	-1.045617e-02	-7.835509e+01	6.568302e-01	1.146501e-02	-5.877881e-05	-1.213334e-03	0.000000e+00	
6.036884e-03	-1.337540e-02	-7.816643e+01	6.568302e-01	1.146501e-02	-5.693829e-05	-3.938241e-04	0.000000e+00	
9.456201e-03	-1.658322e-02	-7.805449e+01	6.568302e-01	1.146501e-02	-5.387402e-05	1.227523e-03	0.000000e+00	
1.411885e-02	-2.005676e-02	-7.790637e+01	6.568302e-01	1.146501e-02	-4.969828e-05	3.246976e-03	0.000000e+00	
2.028844e-02	-2.375298e-02	-7.758651e+01	6.568302e-01	1.146501e-02	-4.469245e-05	5.241241e-03	0.000000e+00	
2.825716e-02	-2.764329e-02	-7.696769e+01	6.568302e-01	1.146501e-02	-3.914869e-05	6.984117e-03	0.000000e+00	
3.836750e-02	-3.169104e-02	-7.596041e+01	6.568302e-01	1.146501e-02	-3.327153e-05	8.413397e-03	0.000000e+00	
5.101105e-02	-3.585086e-02	-7.450838e+01	6.568302e-01	1.146501e-02	-2.716977e-05	9.578350e-03	0.000000e+00	
6.662654e-02	-4.005717e-02	-7.257844e+01	6.568302e-01	1.146501e-02	-2.088502e-05	1.057000e-02	0.000000e+00	
8.568587e-02	-4.422247e-02	-7.015461e+01	6.568302e-01	1.146501e-02	-1.442949e-05	1.152344e-02	0.000000e+00	
1.086725e-01	-4.822800e-02	-6.723598e+01	6.568302e-01	1.146501e-02	-7.816317e-06	1.255590e-02	0.000000e+00	
1.360446e-01	-5.192474e-02	-6.383968e+01	6.568302e-01	1.146501e-02	-1.087213e-06	1.376669e-02	0.000000e+00	
1.681854e-01	-5.513656e-02	-6.000619e+01	6.568302e-01	1.146501e-02	5.669216e-06	1.520819e-02	0.000000e+00	
2.053398e-01	-5.767297e-02	-5.580503e+01	6.568302e-01	1.146501e-02	1.230173e-05	1.686979e-02	0.000000e+00	
2.475461e-01	-5.934870e-02	-5.133851e+01	6.568302e-01	1.146501e-02	1.859505e-05	1.865791e-02	0.000000e+00	
2.945704e-01	-6.001092e-02	-4.674048e+01	6.568302e-01	1.146501e-02	2.428122e-05	2.040221e-02	0.000000e+00	
3.458610e-01	-5.956772e-02	-4.216488e+01	6.568302e-01	1.146501e-02	2.906239e-05	2.188561e-02	0.000000e+00	
4.005385e-01	-5.800997e-02	-3.777562e+01	6.568302e-01	1.146501e-02	3.267396e-05	2.289523e-02	0.000000e+00	
4.574322e-01	-5.541934e-02	-3.371582e+01	6.568302e-01	1.146501e-02	3.490527e-05	2.327804e-02	0.000000e+00	
5.151676e-01	-5.195820e-02	-3.010173e+01	6.568302e-01	1.146501e-02	3.567994e-05	2.297347e-02	0.000000e+00	
5.722912e-01	-4.784463e-02	-2.699331e+01	6.568302e-01	1.146501e-02	3.502007e-05	2.201580e-02	0.000000e+00	
6.274119e-01	-4.332028e-02	-2.440903e+01	6.568302e-01	1.146501e-02	3.309008e-05	2.051203e-02	0.000000e+00	
6.793304e-01	-3.861986e-02	-2.232087e+01	6.568302e-01	1.146501e-02	3.011944e-05	1.860930e-02	0.000000e+00	
7.271310e-01	-3.394867e-02	-2.067277e+01	6.568302e-01	1.146501e-02	2.639668e-05	1.646328e-02	0.000000e+00	
7.702258e-01	-2.947010e-02	-1.939645e+01	6.568302e-01	1.146501e-02	2.220685e-05	1.422595e-02	0.000000e+00	
8.083481e-01	-2.530187e-02	-1.842506e+01	6.568302e-01	1.146501e-02	1.780629e-05	1.204874e-02	0.000000e+00	
8.415097e-01	-2.151823e-02	-1.770252e+01	6.568302e-01	1.146501e-02	1.338592e-05	1.005944e-02	0.000000e+00	
8.699370e-01	-1.815586e-02	-1.717973e+01	6.568302e-01	1.146501e-02	9.093286e-06	8.336856e-03	0.000000e+00	
8.940019e-01	-1.522143e-02	-1.681515e+01	6.568302e-01	1.146501e-02	5.014356e-06	6.903183e-03	0.000000e+00	
9.141583e-01	-1.269962e-02	-1.656734e+01	6.568302e-01	1.146501e-02	1.216782e-06	5.738302e-03	0.000000e+00	
9.308911e-01	-1.056055e-02	-1.640105e+01	6.568302e-01	1.146501e-02	-2.274781e-06	4.799651e-03	0.000000e+00	
9.446795e-01	-8.765932e-03	-1.628194e+01	6.568302e-01	1.146501e-02	-5.436393e-06	4.041712e-03	0.000000e+00	
9.559725e-01	-7.274099e-03	-1.618888e+01	6.568302e-01	1.146501e-02	-8.280480e-06	3.424692e-03	0.000000e+00	
9.651756e-01	-6.043345e-03	-1.610062e+01	6.568302e-01	1.146501e-02	-1.080882e-05	2.919436e-03	0.000000e+00	
9.726451e-01	-5.034364e-03	-1.601266e+01	6.568302e-01	1.146501e-02	-1.305671e-05	2.504251e-03	0.000000e+00	
9.786875e-01	-4.211456e-03	-1.590612e+01	6.568302e-01	1.146501e-02	-1.503206e-05	2.166017e-03	0.000000e+00	
9.835625e-01	-3.543115e-03	-1.578827e+01	6.568302e-01	1.146501e-02	-1.678515e-05	1.892057e-03	0.000000e+00	
9.874872e-01	-3.002168e-03	-1.561485e+01	6.568302e-01	1.146501e-02	-1.831024e-05	1.677542e-03	0.000000e+00	
9.906413e-01	-2.565544e-03	-1.541680e+01	6.568302e-01	1.146501e-02	-1.968193e-05	1.511375e-03	0.000000e+00	
9.931725e-01	-2.213917e-03	-1.504772e+01	6.568302e-01	1.146501e-02	-2.085232e-05	1.398843e-03	0.000000e+00	
9.952017e-01	-1.931238e-03	-1.462940e+01	6.568302e-01	1.146501e-02	-2.196671e-05	1.323117e-03	0.000000e+00	
9.968269e-01	-1.704326e-03	-1.345705e+01	6.568302e-01	1.146501e-02	-2.287480e-05	1.329665e-03	0.000000e+00	
9.981277e-01	-1.522390e-03	-1.123172e+01	6.568302e-01	1.146501e-02	-2.408723e-05	1.446295e-03	0.000000e+00	
9.991681e-01	-1.376646e-03	-4.390217e+00	6.568302e-01	1.146501e-02	-2.353027e-05	2.588483e-03	0.000000e+00	
1.000000e+00	4.200000e-04	-4.845058e+01	6.568302e-01	1.146501e-02	-2.756781e-05	-6.645043e-05	0.000000e+00	
1.000000e+00	-4.200000e-04	-5.226869e+01	6.568302e-01	1.146501e-02	-2.738275e-05	1.445497e-04	0.000000e+00	
1.000114e+00	1.360288e-03	-4.332153e+01	6.471711e-01	2.051474e-02	-2.909669e-05	0.000000e+00	0.000000e+00	
1.000275e+00	1.501918e-03	-4.013030e+01	6.365403e-01	2.803346e-02	-2.901436e-05	0.000000e+00	0.000000e+00	
1.000479e+00	1.681758e-03	-3.711093e+01	6.256363e-01	3.312191e-02	-2.895418e-05	0.000000e+00	0.000000e+00	
1.000756e+00	1.918501e-03	-3.453343e+01	6.134527e-01	3.619624e-02	-2.893655e-05	0.000000e+00	0.000000e+00	
1.001091e+00	2.194123e-03	-3.230951e+01	6.008129e-01	3.732127e-02	-2.896457e-05	0.000000e+00	0.000000e+00	
1.001497e+00	2.508900e-03	-3.049542e+01	5.875004e-01	3.691603e-02	-2.904936e-05	0.000000e+00	0.000000e+00	
1.001988e+00	2.864724e-03	-2.898886e+01	5.733424e-01	3.532862e-02	-2.918977e-05	0.000000e+00	0.000000e+00	
1.002581e+00	3.263206e-03	-2.770680e+01	5.582266e-01	3.277116e-02	-2.938746e-05	0.000000e+00	0.000000e+00	
1.003295e+00	3.705477e-03	-2.658955e+01	5.420904e-01	2.938904e-02	-2.964493e-05	0.000000e+00	0.000000e+00	
1.004151e+00	4.192383e-03	-2.559313e+01	5.249123e-01	2.530367e-02	-2.996535e-05	0.000000e+00	0.000000e+00	
1.005169e+00	4.724829e-03	-2.468650e+01	5.067062e-01	2.064377e-02	-3.035240e-05	0.000000e+00	0.000000e+00	
1.006375e+00	5.304156e-03	-2.384753e+01	4.875238e-01	1.556552e-02	-3.081003e-05	0.000000e+00	0.000000e+00	
1.007795e+00	5.932479e-03	-2.305948e+01	4.674601e-01	1.026290e-02	-3.134197e-05	0.000000e+00	0.000000e+00	
1.009461e+00	6.612948e-03	-2.231074e+01	4.466624e-01	4.972164e-03	-3.195142e-05	0.000000e+00	0.000000e+00	
1.011406e+00	7.349928e-03	-2.159082e+01	4.253352e-01	-3.167089e-05	-3.263983e-05	0.000000e+00	0.000000e+00	
1.013672e+00	8.149091e-03	-2.089385e+01	4.037467e-01	-4.441821e-03	-3.340659e-05	0.000000e+00	0.000000e+00	
1.016307e+00	9.017453e-03	-2.021244e+01	3.822202e-01	-7.940201e-03	-3.424629e-05	0.000000e+00	0.000000e+00	
1.019366e+00	9.963378e-03	-1.954610e+01	3.611278e-01	-1.022265e-02	-3.514910e-05	0.000000e+00	0.000000e+00	
1.022912e+00	1.099657e-02	-1.889044e+01	3.408523e-01	-1.104997e-02	-3.609574e-05	0.000000e+00	0.000000e+00	
1.027032e+00	1.213179e-02	-1.824990e+01	3.217170e-01	-1.029369e-02	-3.706171e-05	0.000000e+00	0.000000e+00	
1.031814e+00	1.338139e-02	-1.762819e+01	3.040373e-01	-8.017182e-03	-3.800773e-05	0.000000e+00	0.000000e+00	
1.037361e+00	1.475919e-02	-1.703552e+01	2.879901e-01	-4.530781e-03	-3.888661e-05	0.000000e+00	0.000000e+00	
1.043795e+00	1.628079e-02	-1.648164e+01	2.735820e-01	-3.907106e-04	-3.964520e-05	0.000000e+00	0.000000e+00	
1.051262e+00	1.796381e-02	-1.597647e+01	2.606321e-01	3.698971e-03	-4.023398e-05	0.000000e+00	0.000000e+00	
1.059931e+00	1.982819e-02	-1.552403e+01	2.487998e-01	7.089325e-03	-4.061574e-05	0.000000e+00	0.000000e+00	
1.070004e+00	2.189662e-02	-1.511973e+01	2.376291e-01	9.426573e-03	-4.077435e-05	0.000000e+00	0.000000e+00	
1.081725e+00	2.419500e-02	-1.474798e+01	2.266122e-01	1.077755e-02	-4.071494e-05	0.000000e+00	0.000000e+00	
1.095385e+00	2.675305e-02	-1.438525e+01	2.152649e-01	1.151775e-02	-4.045606e-05	0.000000e+00	0.000000e+00	
1.111335e+00	2.960504e-02	-1.400602e+01	2.032224e-01	1.204350e-02	-4.001630e-05	0.000000e+00	0.000000e+00	
1.130002e+00	3.279058e-02	-1.358847e+01	1.903047e-01	1.254873e-02	-3.940296e-05	0.000000e+00	0.000000e+00	
1.151907e+00	3.635567e-02	-1.311616e+01	1.765055e-01	1.302630e-02	-3.860574e-05	0.000000e+00	0.000000e+00	
1.177692e+00	4.035374e-02	-1.257663e+01	1.619263e-01	1.339535e-02	-3.759598e-05	0.000000e+00	0.000000e+00	
1.208147e+00	4.484685e-02	-1.196011e+01	1.467369e-01	1.358153e-02	-3.633193e-05	0.000000e+00	0.000000e+00	
1.244261e+00	4.990715e-02	-1.125957e+01	1.311696e-01	1.352369e-02	-3.476668e-05	0.000000e+00	0.000000e+00	
1.287284e+00	5.561914e-02	-1.047216e+01	1.155098e-01	1.317138e-02	-3.285834e-05	0.000000e+00	0.000000e+00	
1.338849e+00	6.208346e-02	-9.600230e+00	1.000685e-01	1.249329e-02	-3.058037e-05	0.000000e+00	0.000000e+00	
1.401119e+00	6.941890e-02	-8.652874e+00	8.516032e-02	1.148753e-02	-2.793500e-05	0.000000e+00	0.000000e+00	
1.476936e+00	7.775807e-02	-7.647690e+00	7.109603e-02	1.019088e-02	-2.496690e-05	0.000000e+00	0.000000e+00	
1.569961e+00	8.724507e-02	-6.612416e+00	5.817074e-02	8.684606e-03	-2.177332e-05	0.000000e+00	0.000000e+00	
1.684826e+00	9.805348e-02	-5.583779e+00	4.663372e-02	7.088931e-03	-1.849803e-05	0.000000e+00	0.000000e+00	
1.827261e+00	1.104372e-01	-4.603448e+00	3.665804e-02	5.540466e-03	-1.531028e-05	0.000000e+00	0.000000e+00	
2.004126e+00	1.248092e-01	-3.710946e+00	2.831829e-02	4.159692e-03	-1.237109e-05	0.000000e+00	0.000000e+00	
2.223324e+00	1.418165e-01	-2.935806e+00	2.158136e-02	3.022124e-03	-9.800879e-06	0.000000e+00	0.000000e+00	
2.493686e+00	1.623692e-01	-2.291833e+00	1.631255e-02	2.148121e-03	-7.658609e-06	0.000000e+00	0.000000e+00	
2.824971e+00	1.876134e-01	-1.776438e+00	1.230160e-02	1.512997e-03	-5.942179e-06	0.000000e+00	0.000000e+00	
3.228122e+00	2.188886e-01	-1.375087e+00	9.305375e-03	1.068914e-03	-4.605797e-06	0.000000e+00	0.000000e+00	
3.715743e+00	2.577155e-01	-1.067590e+00	7.088127e-03	7.645535e-04	-3.582999e-06	0.000000e+00	0.000000e+00	
4.302735e+00	3.058327e-01	-8.336621e-01	5.449724e-03	5.568065e-04	-2.806250e-06	0.000000e+00	0.000000e+00	
5.006982e+00	3.652697e-01	-6.555318e-01	4.232132e-03	4.136744e-04	-2.215854e-06	0.000000e+00	0.000000e+00	
5.850099e+00	4.384399e-01	-5.193312e-01	3.319858e-03	3.135019e-04	-1.765502e-06	0.000000e+00	0.000000e+00	
6.858240e+00	5.282463e-01	-4.141901e-01	2.627321e-03	2.417437e-04	-1.418294e-06	0.000000e+00	0.000000e+00	
8.063038e+00	6.382016e-01	-3.325955e-01	2.097225e-03	1.894683e-04	-1.149516e-06	0.000000e+00	0.000000e+00	
9.484883e+00	7.699836e-01	-2.691856e-01	1.689961e-03	1.505366e-04	-9.408455e-07	0.000000e+00	0.000000e+00	
1.116808e+01	9.275322e-01	-2.191861e-01	1.371652e-03	1.208355e-04	-7.764304e-07	0.000000e+00	0.000000e+00	
1.316681e+01	1.115554e+00	-1.793418e-01	1.119833e-03	9.766307e-05	-6.455654e-07	0.000000e+00	0.000000e+00	
1.554671e+01	1.339687e+00	-1.472702e-01	9.182663e-04	7.928705e-05	-5.402223e-07	0.000000e+00	0.000000e+00	
1.838707e+01	1.606734e+00	-1.213248e-01	7.559465e-04	6.453776e-05	-4.550962e-07	0.000000e+00	0.000000e+00	
2.178335e+01	1.924943e+00	-1.001822e-01	6.241287e-04	5.258822e-05	-3.856549e-07	0.000000e+00	0.000000e+00	
2.585019e+01	2.304337e+00	-8.296179e-02	5.170711e-04	4.286917e-05	-3.291917e-07	0.000000e+00	0.000000e+00	
3.072499e+01	2.757093e+00	-6.882370e-02	4.293545e-04	3.492472e-05	-2.827090e-07	0.000000e+00	0.000000e+00	
3.657222e+01	3.297973e+00	-5.729396e-02	3.579534e-04	2.845134e-05	-2.449369e-07	0.000000e+00	0.000000e+00	
4.358864e+01	3.944826e+00	-4.775081e-02	2.989166e-04	2.317129e-05	-2.134851e-07	0.000000e+00	0.000000e+00	
5.200971e+01	4.719171e+00	-3.996093e-02	2.507928e-04	1.891347e-05	-1.880116e-07	0.000000e+00	0.000000e+00	
6.211716e+01	5.646892e+00	-3.338534e-02	2.101824e-04	1.551443e-05	-1.662432e-07	0.000000e+00	0.000000e+00	
7.424841e+01	6.759065e+00	-2.793690e-02	1.765849e-04	1.286359e-05	-1.484915e-07	0.000000e+00	0.000000e+00	
8.880766e+01	8.092966e+00	-2.309131e-02	1.467027e-04	1.088016e-05	-1.323541e-07	0.000000e+00	0.000000e+00	
1.054932e+02	1.611537e+01	-1.873962e-02	1.199534e-04	1.534162e-05	-1.187798e-07	0.000000e+00	0.000000e+00	
1.043175e+02	2.247745e+01	-1.854955e-02	1.187444e-04	2.127610e-05	-1.186512e-07	0.000000e+00	0.000000e+00	
1.027567e+02	2.875587e+01	-1.834132e-02	1.174372e-04	2.710818e-05	-1.187743e-07	0.000000e+00	0.000000e+00	
1.008166e+02	3.492725e+01	-1.804602e-02	1.156019e-04	3.283913e-05	-1.187265e-07	0.000000e+00	0.000000e+00	
9.850460e+01	4.096865e+01	-1.771471e-02	1.135662e-04	3.846822e-05	-1.188069e-07	0.000000e+00	0.000000e+00	
9.582922e+01	4.685761e+01	-1.730309e-02	1.110487e-04	4.390680e-05	-1.187469e-07	0.000000e+00	0.000000e+00	
9.280047e+01	5.257223e+01	-1.684539e-02	1.082658e-04	4.919240e-05	-1.187314e-07	0.000000e+00	0.000000e+00	
8.942963e+01	5.809130e+01	-1.631008e-02	1.050172e-04	5.421116e-05	-1.185572e-07	0.000000e+00	0.000000e+00	
8.572927e+01	6.339433e+01	-1.572241e-02	1.014621e-04	5.900173e-05	-1.183541e-07	0.000000e+00	0.000000e+00	
8.171315e+01	6.846162e+01	-1.505763e-02	9.744181e-05	6.343841e-05	-1.179431e-07	0.000000e+00	0.000000e+00	
7.739622e+01	7.327439e+01	-1.433698e-02	9.308966e-05	6.755788e-05	-1.174269e-07	0.000000e+00	0.000000e+00	
7.279452e+01	7.781478e+01	-1.353928e-02	8.826853e-05	7.121997e-05	-1.166298e-07	0.000000e+00	0.000000e+00	
6.792516e+01	8.206595e+01	-1.268436e-02	8.310230e-05	7.446926e-05	-1.156443e-07	0.000000e+00	0.000000e+00	
6.280622e+01	8.601215e+01	-1.175313e-02	7.746573e-05	7.714435e-05	-1.142870e-07	0.000000e+00	0.000000e+00	
5.745669e+01	8.963872e+01	-1.076453e-02	7.147743e-05	7.931410e-05	-1.126545e-07	0.000000e+00	0.000000e+00	
5.189643e+01	9.293224e+01	-9.701403e-03	6.502279e-05	8.078844e-05	-1.105492e-07	0.000000e+00	0.000000e+00	
4.614607e+01	9.588046e+01	-8.579880e-03	5.820490e-05	8.167993e-05	-1.080882e-07	0.000000e+00	0.000000e+00	
4.022693e+01	9.847244e+01	-7.386124e-03	5.092804e-05	8.176238e-05	-1.050586e-07	0.000000e+00	0.000000e+00	
3.416096e+01	1.006986e+02	-6.129054e-03	4.325535e-05	8.120871e-05	-1.016209e-07	0.000000e+00	0.000000e+00	
2.797067e+01	1.025505e+02	-4.802185e-03	3.513495e-05	7.974874e-05	-9.755518e-08	0.000000e+00	0.000000e+00	
2.167901e+01	1.040214e+02	-3.402183e-03	2.656297e-05	7.762122e-05	-9.310296e-08	0.000000e+00	0.000000e+00	
1.530932e+01	1.051058e+02	-1.940305e-03	1.759598e-05	7.450529e-05	-8.806911e-08	0.000000e+00	0.000000e+00	
8.885249e+00	1.057995e+02	-4.018514e-04	8.173623e-06	7.069602e-05	-8.284712e-08	0.000000e+00	0.000000e+00	
2.430632e+00	1.060999e+02	1.158741e-03	-1.381800e-06	6.583341e-05	-7.734829e-08	0.000000e+00	0.000000e+00	
-4.030563e+00	1.060060e+02	2.750825e-03	-1.108035e-05	6.026748e-05	-7.222889e-08	0.000000e+00	0.000000e+00	
-1.047434e+01	1.055179e+02	4.271256e-03	-2.034161e-05	5.362569e-05	-6.703804e-08	0.000000e+00	0.000000e+00	
-1.687674e+01	1.046373e+02	5.814945e-03	-2.972290e-05	4.627892e-05	-6.193968e-08	0.000000e+00	0.000000e+00	
-2.321399e+01	1.033676e+02	7.262440e-03	-3.852407e-05	3.786922e-05	-5.673992e-08	0.000000e+00	0.000000e+00	
-2.946250e+01	1.017134e+02	8.701479e-03	-4.724464e-05	2.880403e-05	-5.181350e-08	0.000000e+00	0.000000e+00	
-3.559903e+01	9.968069e+01	1.000692e-02	-5.516114e-05	1.870741e-05	-4.684698e-08	0.000000e+00	0.000000e+00	
-4.160074e+01	9.727700e+01	1.128995e-02	-6.290797e-05	8.020371e-06	-4.221342e-08	0.000000e+00	0.000000e+00	
-4.744528e+01	9.451119e+01	1.241245e-02	-6.969146e-05	-3.712850e-06	-3.762568e-08	0.000000e+00	0.000000e+00	
-5.311088e+01	9.139348e+01	1.350680e-02	-7.626647e-05	-1.595560e-05	-3.329041e-08	0.000000e+00	0.000000e+00	
-5.857642e+01	8.793540e+01	1.443543e-02	-8.185535e-05	-2.943495e-05	-2.915020e-08	0.000000e+00	0.000000e+00	
-6.382152e+01	8.414976e+01	1.533728e-02	-8.723518e-05	-4.327601e-05	-2.490167e-08	0.000000e+00	0.000000e+00	
-6.882661e+01	8.005057e+01	1.610177e-02	-9.182595e-05	-5.897746e-05	-2.119908e-08	0.000000e+00	0.000000e+00	
-7.357300e+01	7.565305e+01	1.685692e-02	-9.627927e-05	-7.468764e-05	-1.640518e-08	0.000000e+00	0.000000e+00	
-7.804297e+01	7.097351e+01	1.755358e-02	-1.005087e-04	-9.386036e-05	-1.302884e-08	0.000000e+00	0.000000e+00	
-8.221980e+01	6.602933e+01	1.831207e-02	-1.048906e-04	-1.122224e-04	-6.166207e-09	0.000000e+00	0.000000e+00	
-8.608788e+01	6.083889e+01	1.916263e-02	-1.102859e-04	-1.377311e-04	-2.815084e-09	0.000000e+00	0.000000e+00	
-8.963274e+01	5.542149e+01	2.030511e-02	-1.166427e-04	-1.608795e-04	9.562098e-09	0.000000e+00	0.000000e+00	
-9.284111e+01	4.979730e+01	2.179281e-02	-1.268419e-04	-1.987645e-04	1.372197e-08	0.000000e+00	0.000000e+00	
-9.570095e+01	4.398727e+01	2.416248e-02	-1.390028e-04	-2.330767e-04	3.891204e-08	0.000000e+00	0.000000e+00	
-9.820156e+01	3.801305e+01	2.745905e-02	-1.643718e-04	-2.938856e-04	4.703681e-08	0.000000e+00	0.000000e+00	
-1.003336e+02	3.189691e+01	3.224345e-02	-1.822486e-04	-3.629712e-04	9.741965e-08	0.000000e+00	0.000000e+00	
-1.020889e+02	2.566166e+01	4.245154e-02	-2.776408e-04	-4.431228e-04	1.304712e-07	0.000000e+00	0.000000e+00	
-1.034611e+02	1.933058e+01	3.896627e-02	-1.320144e-04	-7.028615e-04	1.668980e-07	0.000000e+00	0.000000e+00	
-1.044450e+02	1.292731e+01	1.112596e-01	-1.018715e-03	-4.633030e-04	5.228840e-07	0.000000e+00	0.000000e+00	
-1.050367e+02	6.475749e+00	6.965202e-02	-2.382429e-04	-1.883913e-03	2.174971e-07	0.000000e+00	0.000000e+00	
-1.052342e+02	-1.580735e-14	-2.596510e-01	4.039382e-03	-9.939027e-04	-3.639410e-07	0.000000e+00	0.000000e+00	
-1.050367e+02	-6.475749e+00	-1.288951e-01	2.289740e-03	2.122467e-03	-1.698585e-07	0.000000e+00	0.000000e+00	
-1.044450e+02	-1.292731e+01	1.372775e-01	-1.264515e-03	1.066932e-03	4.644271e-07	0.000000e+00	0.000000e+00	
-1.034611e+02	-1.933058e+01	6.621287e-02	-4.888449e-04	4.689776e-04	3.799539e-07	0.000000e+00	0.000000e+00	
-1.020889e+02	-2.566166e+01	3.997698e-02	-2.039522e-04	6.517389e-04	1.053090e-07	0.000000e+00	0.000000e+00	
-1.003336e+02	-3.189691e+01	3.809424e-02	-2.636531e-04	3.362952e-04	1.389342e-07	0.000000e+00	0.000000e+00	
-9.820156e+01	-3.801305e+01	2.960241e-02	-1.745126e-04	3.497986e-04	5.968713e-08	0.000000e+00	0.000000e+00	
-9.570095e+01	-4.398727e+01	2.537506e-02	-1.632761e-04	2.361026e-04	4.757686e-08	0.000000e+00	0.000000e+00	
-9.284111e+01	-4.979730e+01	2.300841e-02	-1.373726e-04	2.172471e-04	2.298531e-08	0.000000e+00	0.000000e+00	
-8.963274e+01	-5.542149e+01	2.045512e-02	-1.262721e-04	1.652035e-04	1.090455e-08	0.000000e+00	0.000000e+00	
-8.608788e+01	-6.083889e+01	1.963639e-02	-1.166093e-04	1.445243e-04	1.858719e-09	0.000000e+00	0.000000e+00	
-8.221980e+01	-6.602933e+01	1.819650e-02	-1.093484e-04	1.148462e-04	-6.666581e-09	0.000000e+00	0.000000e+00	
-7.804297e+01	-7.097351e+01	1.770782e-02	-1.041343e-04	9.646973e-05	-1.114487e-08	0.000000e+00	0.000000e+00	
-7.357300e+01	-7.565305e+01	1.673359e-02	-9.865173e-05	7.597596e-05	-1.736860e-08	0.000000e+00	0.000000e+00	
-6.882661e+01	-8.005057e+01	1.618147e-02	-9.405392e-05	5.992958e-05	-2.080127e-08	0.000000e+00	0.000000e+00	
-6.382152e+01	-8.414976e+01	1.530349e-02	-8.872827e-05	4.379162e-05	-2.597611e-08	0.000000e+00	0.000000e+00	
-5.857642e+01	-8.793540e+01	1.455819e-02	-8.340977e-05	2.967286e-05	-2.951647e-08	0.000000e+00	0.000000e+00	
-5.311088e+01	-9.139348e+01	1.359791e-02	-7.739919e-05	1.606415e-05	-3.438707e-08	0.000000e+00	0.000000e+00	
-4.744528e+01	-9.451119e+01	1.262737e-02	-7.093657e-05	3.623743e-06	-3.837538e-08	0.000000e+00	0.000000e+00	
-4.160074e+01	-9.727700e+01	1.151268e-02	-6.391058e-05	-8.118968e-06	-4.330403e-08	0.000000e+00	0.000000e+00	
-3.559903e+01	-9.968069e+01	1.032733e-02	-5.626741e-05	-1.895393e-05	-4.777706e-08	0.000000e+00	0.000000e+00	
-2.946250e+01	-1.017134e+02	9.045927e-03	-4.820523e-05	-2.901369e-05	-5.288477e-08	0.000000e+00	0.000000e+00	
-2.321399e+01	-1.033676e+02	7.681054e-03	-3.955248e-05	-3.820047e-05	-5.774233e-08	0.000000e+00	0.000000e+00	
-1.687674e+01	-1.046373e+02	6.257773e-03	-3.063577e-05	-4.656276e-05	-6.299673e-08	0.000000e+00	0.000000e+00	
-1.047434e+01	-1.055179e+02	4.769247e-03	-2.129632e-05	-5.401111e-05	-6.804952e-08	0.000000e+00	0.000000e+00	
-4.030563e+00	-1.060060e+02	3.250150e-03	-1.182369e-05	-6.060839e-05	-7.333839e-08	0.000000e+00	0.000000e+00	
2.430632e+00	-1.060999e+02	1.720649e-03	-2.298391e-06	-6.625565e-05	-7.828021e-08	0.000000e+00	0.000000e+00	
8.885249e+00	-1.057995e+02	1.458306e-04	7.478440e-06	-7.104301e-05	-8.353584e-08	0.000000e+00	0.000000e+00	
1.530932e+01	-1.051058e+02	-1.389751e-03	1.702818e-05	-7.491551e-05	-8.880549e-08	0.000000e+00	0.000000e+00	
2.167901e+01	-1.040214e+02	-2.883530e-03	2.628364e-05	-7.794861e-05	-9.381018e-08	0.000000e+00	0.000000e+00	
2.797067e+01	-1.025505e+02	-4.304223e-03	3.506573e-05	-8.012162e-05	-9.839693e-08	0.000000e+00	0.000000e+00	
3.416096e+01	-1.006986e+02	-5.661432e-03	4.341637e-05	-8.150019e-05	-1.025015e-07	0.000000e+00	0.000000e+00	
4.022693e+01	-9.847244e+01	-6.947009e-03	5.128837e-05	-8.208132e-05	-1.060753e-07	0.000000e+00	0.000000e+00	
4.614607e+01	-9.588046e+01	-8.167258e-03	5.872019e-05	-8.192190e-05	-1.091440e-07	0.000000e+00	0.000000e+00	
5.189643e+01	-9.293224e+01	-9.320082e-03	6.570001e-05	-8.103697e-05	-1.117103e-07	0.000000e+00	0.000000e+00	
5.745669e+01	-8.963872e+01	-1.040733e-02	7.224498e-05	-7.948446e-05	-1.138274e-07	0.000000e+00	0.000000e+00	
6.280622e+01	-8.601215e+01	-1.142815e-02	7.835232e-05	-7.729920e-05	-1.155257e-07	0.000000e+00	0.000000e+00	
6.792516e+01	-8.206595e+01	-1.238191e-02	8.402466e-05	-7.453876e-05	-1.168577e-07	0.000000e+00	0.000000e+00	
7.279452e+01	-7.781478e+01	-1.326895e-02	8.926830e-05	-7.125523e-05	-1.178714e-07	0.000000e+00	0.000000e+00	
7.739622e+01	-7.327439e+01	-1.408718e-02	9.407552e-05	-6.749860e-05	-1.186046e-07	0.000000e+00	0.000000e+00	
8.171315e+01	-6.846162e+01	-1.483940e-02	9.846876e-05	-6.333354e-05	-1.191192e-07	0.000000e+00	0.000000e+00	
8.572927e+01	-6.339433e+01	-1.552159e-02	1.024264e-04	-5.879535e-05	-1.194289e-07	0.000000e+00	0.000000e+00	
8.942963e+01	-5.809130e+01	-1.614050e-02	1.059959e-04	-5.395721e-05	-1.196115e-07	0.000000e+00	0.000000e+00	
9.280047e+01	-5.257223e+01	-1.668857e-02	1.091312e-04	-4.883517e-05	-1.196475e-07	0.000000e+00	0.000000e+00	
9.582922e+01	-4.685761e+01	-1.717842e-02	1.119165e-04	-4.350825e-05	-1.196381e-07	0.000000e+00	0.000000e+00	
9.850460e+01	-4.096865e+01	-1.759611e-02	1.142638e-04	-3.797300e-05	-1.195185e-07	0.000000e+00	0.000000e+00	
1.008166e+02	-3.492725e+01	-1.796306e-02	1.163122e-04	-3.231031e-05	-1.194293e-07	0.000000e+00	0.000000e+00	
1.027567e+02	-2.875587e+01	-1.825463e-02	1.179053e-04	-2.650600e-05	-1.192394e-07	0.000000e+00	0.000000e+00	
1.043175e+02	-2.247745e+01	-1.850608e-02	1.192678e-04	-2.062837e-05	-1.191599e-07	0.000000e+00	0.000000e+00	
1.054932e+02	-1.611537e+01	-1.867573e-02	1.201361e-04	-1.468650e-05	-1.189519e-07	0.000000e+00	0.000000e+00	
1.062795e+02	-9.693281e+00	-1.882330e-02	1.208478e-04	-8.683626e-06	-1.189427e-07	0.000000e+00	0.000000e+00	
1.066733e+02	-3.235109e+00	-1.886601e-02	1.210091e-04	-2.775244e-06	-1.187511e-07	0.000000e+00	0.000000e+00	
1.066733e+02	3.235109e+00	-1.887882e-02	1.214318e-04	3.396436e-06	-1.192490e-07	0.000000e+00	0.000000e+00	
9.991970e-01	1.546961e-03	-2.070071e+01	6.455720e-01	1.430442e-02	-2.778477e-05	0.000000e+00	0.000000e+00	
9.981477e-01	1.694586e-03	-2.295353e+01	6.492122e-01	1.226311e-02	-2.885635e-05	0.000000e+00	0.000000e+00	
9.968455e-01	1.869037e-03	-2.181709e+01	6.503645e-01	1.236232e-02	-2.863875e-05	0.000000e+00	0.000000e+00	
9.952197e-01	2.089165e-03	-2.148215e+01	6.514301e-01	1.220419e-02	-2.864652e-05	0.000000e+00	0.000000e+00	